# vtk DataFile Version 4.2
vtk output
ASCII
DATASET POLYDATA
POINTS 27024 float
24.8975 -6.05899 5.27182 19.2308 3.70912 4.40911 16.9678 -10.6533 6.21377 
10.9618 -0.208426 5.84005 21.5392 -2.17695 -1.45125 14.3517 -4.76385 -0.578208 
20.2963 -1.83094 10.6996 16.7887 -4.21082 11.5213 11.4463 4.74951 2.27947 
22.5251 -13.6743 0.824074 14.1198 6.95099 9.01268 22.5512 -14.1245 11.9948 
24.6867 -5.49696 5.15755 24.3962 -4.94574 5.03284 24.0601 -4.35404 4.91315 
23.7311 -3.65322 4.81649 23.4547 -2.79475 4.75566 23.2393 -1.79481 4.73058 
23.0415 -0.749794 4.7266 22.7864 0.203433 4.7218 22.4136 0.963764 4.69914 
21.9139 1.52075 4.65447 21.3308 1.94614 4.59552 20.7303 2.33657 4.53448 
20.1671 2.75739 4.48095 19.6671 3.22265 4.43919 24.9452 -5.86293 4.84788 
24.8984 -5.70315 4.34814 24.7504 -5.58433 3.79648 24.5153 -5.49473 3.23172 
24.2278 -5.4023 2.69051 23.9326 -5.2608 2.18541 23.6685 -5.02764 1.69559 
23.4529 -4.68612 1.183 23.2768 -4.25752 0.626298 23.1117 -3.79289 0.046133 
22.9222 -3.34902 -0.499594 22.679 -2.96471 -0.945648 22.3661 -2.65086 -1.25071 
21.9825 -2.39561 -1.41054 24.6586 -5.92271 5.57739 24.3333 -5.79541 5.87148 
23.9562 -5.64837 6.18645 23.5858 -5.4435 6.56105 23.2819 -5.15133 7.01942 
23.0707 -4.77246 7.54962 22.9208 -4.34598 8.09952 22.7539 -3.93222 8.5997 
22.4933 -3.57797 9.00152 22.1131 -3.29033 9.30285 21.6529 -3.03924 9.54353 
21.1896 -2.78305 9.77745 20.7931 -2.49474 10.044 20.4969 -2.17197 10.3551 
25.081 -6.55655 5.11763 25.1717 -7.17373 4.90104 25.1634 -7.91628 4.60509 
25.0877 -8.75174 4.23243 25.0061 -9.61493 3.80819 24.9772 -10.4365 3.3688 
25.0135 -11.1772 2.94217 25.063 -11.8383 2.53544 25.0368 -12.4365 2.14251 
24.8638 -12.9683 1.76407 24.5292 -13.3989 1.41947 24.0725 -13.6859 1.13935 
23.5557 -13.8105 0.947441 23.0304 -13.7913 0.84766 24.905 -6.59704 5.56777 
24.8275 -7.23809 5.83967 24.663 -7.96285 6.07376 24.4169 -8.7297 6.27068 
24.1017 -9.48761 6.45521 23.7438 -10.1957 6.67734 23.3911 -10.8368 6.99853 
23.1086 -11.4145 7.46596 22.9517 -11.9406 8.08862 22.9304 -12.4226 8.83005 
22.9938 -12.8619 9.6215 23.0516 -13.2567 10.3859 23.0186 -13.6034 11.0592 
22.8502 -13.8957 11.6008 19.3876 3.51785 3.97661 19.5843 3.31748 3.51464 
19.8289 3.11585 3.01675 20.1183 2.91943 2.47548 20.4363 2.73067 1.89088 
20.7572 2.54355 1.28064 21.0545 2.33789 0.682905 21.3081 2.07763 0.144813 
21.5058 1.71983 -0.29843 21.6408 1.23424 -0.638717 21.7116 0.622058 -0.892869 
21.7231 -0.080324 -1.08694 21.6873 -0.815554 -1.24074 21.6207 -1.52733 -1.36227 
19.3497 3.58057 4.85926 19.4807 3.42138 5.3364 19.6123 3.22112 5.828 
19.7251 2.96755 6.31646 19.7991 2.65149 6.78602 19.826 2.27336 7.23161 
19.8176 1.84666 7.66231 19.8032 1.39361 8.0938 19.8136 0.934425 8.53424 
19.8634 0.478193 8.97567 19.9465 0.0225493 9.3986 20.0444 -0.438527 9.78467 
20.1397 -0.906289 10.1264 20.2236 -1.37425 10.428 18.9023 4.09256 4.11773 
18.5537 4.49018 3.8169 18.1689 4.88295 3.51777 17.7238 5.24982 3.2326 
17.1965 5.57315 2.97117 16.5825 5.84133 2.73861 15.905 6.04541 2.53717 
15.2102 6.17296 2.3711 14.5455 6.20713 2.24925 13.9371 6.13498 2.18101 
13.3836 5.95894 2.1674 12.8676 5.70063 2.19534 12.3734 5.3933 2.24021 
11.8972 5.06907 2.27499 18.8887 4.14321 4.66557 18.5296 4.59615 4.94538 
18.1338 5.03123 5.24158 17.6919 5.42264 5.54681 17.2199 5.77499 5.86076 
16.7614 6.1262 6.19556 16.3677 6.52163 6.5712 16.0651 6.97089 6.99948 
15.835 7.4221 7.4668 15.6256 7.78027 7.93144 15.3861 7.95854 8.34022 
15.0956 7.92261 8.6527 14.7669 7.69926 8.85653 14.4313 7.35251 8.9665 
16.7715 -9.99435 6.14359 16.5228 -9.27771 6.06467 16.2158 -8.50914 5.99448 
15.8508 -7.70761 5.95196 15.4328 -6.90598 5.94797 14.9709 -6.13843 5.97609 
14.4778 -5.4186 6.01176 13.97 -4.72724 6.02402 13.466 -4.0267 5.99381 
12.981 -3.29453 5.92579 12.5231 -2.54681 5.845 12.093 -1.83026 5.78213 
11.6887 -1.19224 5.7587 11.3104 -0.654766 5.78052 16.8311 -10.4204 5.81485 
16.7328 -10.1204 5.35433 16.6571 -9.77353 4.82465 16.5729 -9.40764 4.23101 
16.4434 -9.04556 3.59965 16.2462 -8.69072 2.97703 15.9893 -8.32348 2.4138 
15.7095 -7.91498 1.93913 15.4503 -7.45064 1.54401 15.2362 -6.94452 1.18928 
15.0613 -6.43235 0.833608 14.9014 -5.95015 0.459509 14.7332 -5.51605 0.0795962 
14.5479 -5.12635 -0.276071 17.0383 -10.4216 6.54171 17.1499 -10.107 6.8613 
17.289 -9.71292 7.18077 17.4238 -9.26219 7.5105 17.5138 -8.7907 7.86092 
17.5286 -8.33086 8.24046 17.4651 -7.89486 8.65314 17.3492 -7.47085 9.09508 
17.2195 -7.03602 9.55155 17.105 -6.57537 9.99869 17.0148 -6.09112 10.4109 
16.9435 -5.59833 10.7701 16.8834 -5.11415 11.0706 16.8313 -4.65016 11.3175 
17.0396 -11.1675 6.01915 17.0995 -11.691 5.75826 17.1531 -12.2195 5.41587 
17.2252 -12.7387 4.99257 17.3628 -13.2154 4.51269 17.6224 -13.5983 4.02144 
18.0419 -13.8365 3.56721 18.6128 -13.9104 3.17737 19.277 -13.8518 2.84472 
19.9548 -13.734 2.53607 20.5839 -13.6337 2.21643 21.141 -13.5944 1.87025 
21.6363 -13.6133 1.50646 22.0921 -13.6547 1.14917 17.1869 -11.1635 6.48681 
17.4447 -11.6613 6.77072 17.7467 -12.1317 7.07203 18.0829 -12.5685 7.40613 
18.428 -12.9761 7.79489 18.7549 -13.3646 8.25827 19.0566 -13.7404 8.8022 
19.3585 -14.0965 9.40955 19.7064 -14.41 10.0403 20.1363 -14.6485 10.6418 
20.6468 -14.7809 11.163 21.1978 -14.7887 11.5671 21.7301 -14.6703 11.8369 
22.1912 -14.4405 11.9741 10.8536 -0.489266 5.49685 10.7642 -0.809319 5.10545 
10.7049 -1.14806 4.66551 10.6943 -1.47707 4.18404 10.756 -1.7718 3.67343 
10.9097 -2.02603 3.14701 11.1592 -2.25808 2.61564 11.4868 -2.50091 2.08797 
11.8611 -2.78108 1.57368 12.2535 -3.10293 1.08557 12.6507 -3.45002 0.637998 
13.0542 -3.79955 0.243215 13.4714 -4.13619 -0.0915014 13.9053 -4.45631 -0.364398 
11.2952 -0.229201 6.13139 11.6553 -0.309116 6.45995 12.0437 -0.455978 6.82792 
12.4604 -0.665534 7.22883 12.8995 -0.920384 7.65028 13.3458 -1.19615 8.08103 
13.779 -1.47382 8.51751 14.1837 -1.75074 8.96313 14.5597 -2.0411 9.4195 
14.921 -2.36379 9.87712 15.2854 -2.72656 10.3145 15.662 -3.11827 10.707 
16.0469 -3.51354 11.0385 16.4271 -3.88445 11.3067 10.5453 0.0317658 5.7292 
10.1181 0.272444 5.63792 9.7122 0.563028 5.53992 9.36118 0.961686 5.39275 
9.08758 1.50474 5.15272 8.89708 2.17505 4.79847 8.78722 2.8945 4.34951 
8.76432 3.5546 3.86399 8.85033 4.06835 3.4133 9.06914 4.40649 3.04963 
9.42389 4.5953 2.78806 9.88664 4.68652 2.61092 10.4085 4.72682 2.48562 
10.9399 4.74411 2.38173 10.8362 0.208732 6.08875 10.7296 0.641708 6.34202 
10.6511 1.11296 6.59512 10.6182 1.65796 6.8488 10.6543 2.30643 7.10712 
10.7781 3.054 7.37005 10.9914 3.84558 7.62612 11.2771 4.59181 7.8546 
11.6096 5.21455 8.03919 11.971 5.68724 8.1826 12.3575 6.03786 8.3078 
12.7724 6.31691 8.44411 13.2137 6.56085 8.60992 13.6693 6.77695 8.80469 
21.1764 -2.42007 -1.46478 20.7708 -2.63895 -1.41937 20.3207 -2.82103 -1.31525 
19.8207 -2.96643 -1.16673 19.2647 -3.0922 -1.00619 18.6519 -3.22793 -0.879487 
17.9934 -3.40171 -0.829256 17.3157 -3.62368 -0.87196 16.6563 -3.87876 -0.983933 
16.0532 -4.13449 -1.10898 15.5343 -4.3579 -1.18427 15.1117 -4.52959 -1.16719 
14.7826 -4.64728 -1.04729 14.5347 -4.72072 -0.841112 21.0534 -1.57126 -1.36698 
20.4205 -0.923018 -1.22971 19.6502 -0.235995 -1.06975 18.7777 0.468909 -0.914544 
17.8522 1.15082 -0.77012 16.9199 1.75908 -0.612282 16.0141 2.25573 -0.398737 
15.1585 2.63671 -0.0976628 14.3761 2.93477 0.288089 13.6883 3.20029 0.720063 
13.1045 3.47481 1.14536 12.6142 3.77584 1.52191 12.1915 4.09885 1.83159 
11.8083 4.4286 2.07852 21.7202 -2.93398 -1.50704 21.8581 -3.72029 -1.51079 
21.9736 -4.53979 -1.44834 22.1046 -5.41467 -1.32124 22.293 -6.37795 -1.15583 
22.5589 -7.45068 -1.0003 22.8787 -8.61372 -0.903344 23.1859 -9.79554 -0.882288 
23.4002 -10.8916 -0.903322 23.4687 -11.8076 -0.893297 23.3895 -12.4977 -0.778079 
23.204 -12.9746 -0.520462 22.97 -13.2904 -0.133312 22.7352 -13.507 0.33451 
13.839 -4.20293 -0.71043 13.2606 -3.59377 -0.78975 12.644 -2.91835 -0.811737 
12.0325 -2.16843 -0.786832 11.4779 -1.35757 -0.730383 11.0269 -0.525768 -0.643989 
10.7076 0.271336 -0.503285 10.5252 0.986935 -0.268444 10.4664 1.60614 0.0847218 
10.509 2.15046 0.537517 10.6289 2.66065 1.02932 10.8027 3.17172 1.48608 
11.0085 3.69735 1.85349 11.2275 4.22975 2.11339 14.9347 -5.32429 -0.579174 
15.5297 -5.97233 -0.546376 16.115 -6.72315 -0.495473 16.6686 -7.57621 -0.450253 
17.1795 -8.50247 -0.431387 17.659 -9.44197 -0.442789 18.1411 -10.3197 -0.465833 
18.6666 -11.0742 -0.468071 19.2559 -11.6812 -0.421154 19.8939 -12.156 -0.314041 
20.5373 -12.5361 -0.152663 21.1392 -12.8592 0.0500415 21.6711 -13.1506 0.283478 
22.1289 -13.4215 0.542291 20.2513 -1.89424 11.1098 20.2189 -1.95807 11.5857 
20.1689 -2.02848 12.1225 20.0605 -2.11386 12.6889 19.8572 -2.22425 13.2204 
19.5468 -2.36959 13.6278 19.1531 -2.55643 13.8279 18.7278 -2.78391 13.7837 
18.3254 -3.04127 13.5263 17.9779 -3.30933 13.1404 17.6872 -3.56577 12.7234 
17.4363 -3.79157 12.3439 17.2071 -3.97532 12.0264 16.9907 -4.11394 11.7605 
20.1016 -1.18434 10.9015 19.9164 -0.485693 11.1064 19.713 0.257448 11.2912 
19.4487 1.03587 11.4385 19.0811 1.83963 11.5436 18.5924 2.65507 11.6108 
18.0065 3.45911 11.6387 17.3834 4.21711 11.6061 16.7888 4.89086 11.4758 
16.2609 5.4538 11.2178 15.7986 5.90215 10.8347 15.3751 6.25296 10.3664 
14.9614 6.53186 9.87331 14.5426 6.76053 9.41081 20.4712 -2.51843 10.7364 
20.6642 -3.26421 10.7669 20.8842 -4.067 10.8017 21.1413 -4.92166 10.8602 
21.4386 -5.82003 10.9688 21.7654 -6.75382 11.1513 22.0938 -7.7167 11.4137 
22.3865 -8.70216 11.7319 22.6117 -9.6967 12.0534 22.7551 -10.674 12.3158 
22.8204 -11.5962 12.4717 22.8209 -12.4235 12.5027 22.7702 -13.1262 12.4178 
22.6781 -13.6917 12.2401 16.5261 -3.57785 11.5748 16.2339 -2.90125 11.6015 
15.9013 -2.16972 11.6046 15.5285 -1.3646 11.5879 15.134 -0.47134 11.5501 
14.7539 0.502289 11.479 14.4309 1.51373 11.3533 14.1963 2.49385 11.1536 
14.0575 3.37669 10.8772 13.9992 4.13144 10.5447 13.9944 4.77283 10.1918 
14.0177 5.34391 9.85204 14.0516 5.88713 9.54363 14.0868 6.42386 9.26736 
17.1738 -4.7879 11.5821 17.5994 -5.38283 11.6019 18.0788 -5.99175 11.5835 
[...]
POINT_DATA 27024
FIELD FieldData 1
label 1 27024 float
12181 12181 12181 12181 12181 12181 12181 12181 12181 
12181 12181 12181 12181 12181 12181 12181 12181 12181 
12181 12181 12181 12181 12181 12181 12181 12181 12181 
12181 12181 12181 12181 12181 12181 12181 12181 12181 
12181 12181 12181 12181 12181 12181 12181 12181 12181 
12181 12181 12181 12181 12181 12181 12181 12181 12181 
12181 12181 12181 12181 12181 12181 12181 12181 12181 
12181 12181 12181 12181 12181 12181 12181 12181 12181 
12181 12181 12181 12181 12181 12181 12181 12181 12181 
12181 12181 12181 12181 12181 12181 12181 12181 12181 
12181 12181 12181 12181 12181 12181 12181 12181 12181 
12181 12181 12181 12181 12181 12181 12181 12181 12181 
12181 12181 12181 12181 12181 12181 12181 12181 12181 
12181 12181 12181 12181 12181 12181 12181 12181 12181 
12181 12181 12181 12181 12181 12181 12181 12181 12181 
12181 12181 12181 12181 12181 12181 12181 12181 12181 
12181 12181 12181 12181 12181 12181 12181 12181 12181 
12181 12181 12181 12181 12181 12181 12181 12181 12181 
12181 12181 12181 12181 12181 12181 12181 12181 12181 
12181 12181 12181 12181 12181 12181 12181 12181 12181 
12181 12181 12181 12181 12181 12181 12181 12181 12181 
12181 12181 12181 12181 12181 12181 12181 12181 12181 
12181 12181 12181 12181 12181 12181 12181 12181 12181 
12181 12181 12181 12181 12181 12181 12181 12181 12181 
12181 12181 12181 12181 12181 12181 12181 12181 12181 
12181 12181 12181 12181 12181 12181 12181 12181 12181 
12181 12181 12181 12181 12181 12181 12181 12181 12181 
12181 12181 12181 12181 12181 12181 12181 12181 12181 
12181 12181 12181 12181 12181 12181 12181 12181 12181 
12181 12181 12181 12181 12181 12181 12181 12181 12181 
12181 12181 12181 12181 12181 12181 12181 12181 12181 
12181 12181 12181 12181 12181 12181 12181 12181 12181 
12181 12181 12181 12181 12181 12181 12181 12181 12181 
12181 12181 12181 12181 12181 12181 12181 12181 12181 
12181 12181 12181 12181 12181 12181 12181 12181 12181 
12181 12181 12181 12181 12181 12181 12181 12181 12181 
12181 12181 12181 12181 12181 12181 12181 12181 12181 
12181 12181 12181 12181 12181 12181 12181 12181 12181 
12181 12181 12181 12181 12181 12181 12181 12181 12181 
12181 12181 12181 12181 12181 12181 12181 12181 12181 
12181 12181 12181 12181 12181 12181 12181 12181 12181 
12181 12181 12181 12181 12181 12181 12181 12181 12181 
12181 12181 12181 12181 12181 12181 12181 12181 12181 
12181 12181 12181 12181 12181 12181 12181 12181 12181 
12181 12181 12181 12181 12181 12181 12181 12181 12181 
12181 12181 12181 12181 12181 12181 12181 12181 12181 
12181 12181 12181 12181 12181 12181 12181 12181 12181 
12181 12181 12181 12181 12181 12181 12181 12181 12181 
12181 12181 12181 12181 12181 12181 12181 12181 12181 
12181 12181 12181 12181 12181 12181 12181 12181 12181 
12181 12181 12181 12181 12181 12181 12181 12181 12181 
12181 12181 12181 12181 12181 12181 12181 12181 12181 
12181 12181 12181 12181 12181 12181 12181 12181 12181 
12181 12181 12181 12181 12181 12181 12181 12181 12181 
12181 12181 12181 12181 12181 12181 12181 12181 12181 
12181 12181 12181 12181 12181 12181 12181 12181 12181 
12181 12181 12181 12181 12181 12181 12181 12181 12181 
12181 12181 12181 12181 12181 12181 12181 12181 12181 
12181 12181 12181 12181 12181 12181 12181 12181 12181 
12181 12181 12181 12181 12181 12181 12181 12181 12181 
12181 12181 12181 12181 12181 12181 12181 12181 12181 
12181 12181 12181 12181 12181 12181 12181 12181 12181 
12181 12181 12181 12181 12181 12181 12181 12181 12181 
12181 12181 12181 12181 12181 12181 12181 12181 12181 
12181 12181 12181 12181 12181 12181 12181 12181 12181 
12181 12181 12181 12181 12181 12181 12181 12181 12181 
12181 12181 12181 12181 12181 12181 12181 12181 12181 
12181 12181 12181 12181 12181 12181 12181 12181 12181 
12181 12181 12181 12181 12181 12181 12181 12181 12181 
12181 12181 12181 12181 12181 12181 12181 12181 12181 
12181 12181 12181 12181 12181 12181 12181 12181 12181 
12181 12181 12181 12181 12181 12181 12181 12181 12181 
12181 12181 12181 12181 12181 12181 12181 12181 12181 
12181 12181 12181 12181 12181 12181 12181 12181 12181 
12181 12181 12181 12181 12181 12181 12181 12181 12181 
12181 12181 12181 12181 12181 12181 12181 12181 12181 
12181 12181 12181 12181 12181 12181 12181 12181 12181 
12181 12181 12181 12181 12181 12181 12181 12181 12181 
12181 12181 12181 12181 12181 12181 12181 12181 12181 
12181 12181 12181 12181 12181 12181 12181 12181 12181 
12181 12181 12181 12181 12181 12181 12181 12181 12181 
12181 12181 12181 12181 12181 12181 12181 12181 12181 
12181 12181 12181 12181 12181 12181 12181 12181 12181 
12181 12181 12181 12181 12181 12181 12181 12181 12181 
12181 12181 12181 12181 12181 12181 12181 12181 12181 
12181 12181 12181 12181 12181 12181 12181 12181 12181 
12181 12181 12181 12181 12181 12181 12181 12181 12181 
12181 12181 12181 12181 12181 12181 12181 12181 12181 
12181 12181 12181 12181 12181 12181 12181 12181 12181 
12181 12181 12181 12181 12181 12181 12181 12181 12181 
12181 12181 12181 12181 12181 12181 12181 12181 12181 
12181 12181 12181 12181 12181 12181 12181 12181 12181 
12181 12181 12181 12181 12181 12181 12181 12181 12181 
12181 12181 12181 12181 12181 12181 12181 12181 12181 
12181 12181 12181 12181 12181 12181 12181 12181 12181 
12181 12181 12181 12181 12181 12181 12181 12181 12181 
12181 12181 12181 12181 12181 12181 12181 12181 12181 
12181 12181 12181 12181 12181 12181 12181 12181 12181 
12181 12181 12181 12181 12181 12181 12181 12181 12181 
12181 12181 12181 12181 12181 12181 12181 12181 12181 
12181 12181 12181 12181 12181 12181 12181 12181 12181 
12181 12181 12181 12181 12181 12181 12181 12181 12181 
12181 12181 12181 12181 12181 12181 12181 12181 12181 
12181 12181 12181 12181 12181 12181 12181 12181 12181 
12181 12181 12181 12181 12181 12181 12181 12181 12181 
12181 12181 12181 12181 12181 12181 12181 12181 12181 
12181 12181 12181 12181 12181 12181 12181 12181 12181 
12181 12181 12181 12181 12181 12181 12181 12181 12181 
12181 12181 12181 12181 12181 12181 12181 12181 12181 
12181 12181 12181 12181 12181 12181 12181 12181 12181 
12181 12181 12181 12181 12181 12181 12181 12181 12181 
12181 12181 12181 12181 12181 12181 12181 12181 12181 
12181 12181 12181 12181 12181 12181 12181 12181 12181 
12181 12181 12181 12181 12181 12181 12181 12181 12181 
12181 12181 12181 12181 12181 12181 12181 12181 12181 
12181 12181 12181 12181 12181 12181 12181 12181 12181 
12181 12181 12181 12181 12181 12181 12181 12181 12181 
12181 12181 12181 12181 12181 12181 12181 12181 12181 
12181 12181 12181 12181 12181 12181 12181 12181 12181 
12181 12181 12181 12181 12181 12181 12181 12181 12181 
12181 12181 12181 12181 12181 12181 12181 12181 12181 
12181 12181 12181 12181 12181 12181 12181 12181 12181 
12181 12181 12181 12181 12181 12181 12181 12181 12181 
12181 12181 12181 12181 12181 12181 12181 12181 12181 
12181 12181 12181 12181 12181 12181 12181 12181 12181 
12181 12181 12181 12181 12181 12181 12181 12181 12181 
12181 12181 12181 12181 12181 12181 12181 12181 12181 
12181 12181 12181 12181 12181 12181 12181 12181 12181 
12181 12181 12181 12181 12181 12181 12181 12181 12181 
12181 12181 12181 12181 12181 12181 12181 12181 12181 
12181 12181 12181 12181 12181 12181 12181 12181 12181 
12181 12181 12181 12181 12181 12181 12181 12181 12181 
12181 12181 12181 12181 12181 12181 12181 12181 12181 
12181 12181 12181 12181 12181 12181 12181 12181 12181 
12181 12181 12181 12181 12181 12181 12181 12181 12181 
12181 12181 12181 12181 12181 12181 12181 12181 12181 
12181 12181 12181 12181 12181 12181 12181 12181 12181 
12181 12181 12181 12181 12181 12181 12181 12181 12181 
12181 12181 12181 12181 12181 12181 12181 12181 12181 
12181 12181 12181 12181 12181 12181 12181 12181 12181 
12181 12181 12181 12181 12181 12181 12181 12181 12181 
12181 12181 12181 12181 12181 12181 12181 12181 12181 
12181 12181 12181 12181 12181 12181 12181 12181 12181 
12181 12181 12181 12181 12181 12181 12181 12181 12181 
12181 12181 12181 12181 12181 12181 12181 12181 12181 
12181 12181 12181 12181 12181 12181 12181 12181 12181 
12181 12181 12181 12181 12181 12181 12181 12181 12181 
12181 12181 12181 12181 12181 12181 12181 12181 12181 
12181 12181 12181 12181 12181 12181 12181 12181 12181 
12181 12181 12181 12181 12181 12181 12181 12181 12181 
12181 12181 12181 12181 12181 12181 12181 12181 12181 
12181 12181 12181 12181 12181 12181 12181 12181 12181 
12181 12181 12181 12181 12181 12181 12181 12181 12181 
12181 12181 12181 12181 12181 12181 12181 12181 12181 
12181 12181 12181 12181 12181 12181 12181 12181 12181 
12181 12181 12181 12181 12181 12181 12181 12181 12181 
12181 12181 12181 12181 12181 12181 12181 12181 12181 
12181 12181 12181 12181 12181 12181 12181 12181 12181 
12181 12181 12181 12181 12181 12181 12181 12181 12181 
12181 12181 12181 12181 12181 12181 12181 12181 12181 
12181 12181 12181 12181 12181 12181 12181 12181 12181 
12181 12181 12181 12181 12181 12181 12181 12181 12181 
12181 12181 12181 12181 12181 12181 12181 12181 12181 
12181 12181 12181 12181 12181 12181 12181 12181 12181 
12181 12181 12181 12181 12181 12181 12181 12181 12181 
12181 12181 12181 12181 12181 12181 12181 12181 12181 
12181 12181 12181 12181 12181 12181 12181 12181 12181 
12181 12181 12181 12181 12181 12181 12181 12181 12181 
12181 12181 12181 12181 12181 12181 12181 12181 12181 
12181 12181 12181 12181 12181 12181 12181 12181 12181 
12181 12181 12181 12181 12181 12181 12181 12181 12181 
12181 12181 12181 12181 12181 12181 12181 12181 12181 
12181 12181 12181 12181 12181 12181 12181 12181 12181 
12181 12181 12181 12181 12181 12181 12181 12181 12181 
12181 12181 12181 12181 12181 12181 12181 12181 12181 
12181 12181 12181 12181 12181 12181 12181 12181 12181 
12181 12181 12181 12181 12181 12181 12181 12181 12181 
12181 12181 12181 12181 12181 12181 12181 12181 12181 
12181 12181 12181 12181 12181 12181 12181 12181 12181 
12181 12181 12181 12181 12181 12181 12181 12181 12181 
12181 12181 12181 12181 12181 12181 12181 12181 12181 
12181 12181 12181 12181 12181 12181 12181 12181 12181 
12181 12181 12181 12181 12181 12181 12181 12181 12181 
12181 12181 12181 12181 12181 12181 12181 12181 12181 
12181 12181 12181 12181 12181 12181 12181 12181 12181 
12181 12181 12181 12181 12181 12181 12181 12181 12181 
12181 12181 12181 12181 12181 12181 12181 12181 12181 
12181 12181 12181 12181 12181 12181 12181 12181 12181 
12181 12181 12181 12181 12181 12181 12181 12181 12181 
12181 12181 12181 12181 12181 12181 12181 12181 12181 
12181 12181 12181 12181 12181 12181 12181 12181 12181 
12181 12181 12181 12181 12181 12181 12181 12181 12181 
12181 12181 12181 12181 12181 12181 12181 12181 12181 
12181 12181 12181 12181 12181 12181 12181 12181 12181 
12181 12181 12181 12181 12181 12181 12181 12181 12181 
12181 12181 12181 12181 12181 12181 12181 12181 12181 
12181 12181 12181 12181 12181 12181 12181 12181 12181 
12181 12181 12181 12181 12181 12181 12181 12181 12181 
12181 12181 12181 12181 12181 12181 12181 12181 12181 
12181 12181 12181 12181 12181 12181 12181 12181 12181 
12181 12181 12181 12181 12181 12181 12181 12181 12181 
12181 12181 12181 12181 12181 12181 12181 12181 12181 
12181 12181 12181 12181 12181 12181 12181 12181 12181 
12181 12181 12181 12181 12181 12181 12181 12181 12181 
12181 12181 12181 12181 12181 12181 12181 12181 12181 
12181 12181 12181 12181 12181 12181 12181 12181 12181 
12181 12181 12181 12181 12181 12181 12181 12181 12181 
12181 12181 12181 12181 12181 12181 12181 12181 12181 
12181 12181 12181 12181 12181 12181 12181 12181 12181 
12181 12181 12181 12181 12181 12181 12181 12181 12181 
12181 12181 12181 12181 12181 12181 12181 12181 12181 
12181 12181 12181 12181 12181 12181 12181 12181 12181 
12181 12181 12181 12181 12181 12181 12181 12181 12181 
12181 12181 12181 12181 12181 12181 12181 12181 12181 
12181 12181 12181 12181 12181 12181 12181 12181 12181 
12181 12181 12181 12181 12181 12181 12181 12181 12181 
12181 12181 12181 12181 12181 12181 12181 12181 12181 
12181 12181 12181 12181 12181 12181 12181 12181 12181 
12181 12181 12181 12181 12181 12181 12181 12181 12181 
12181 12181 12181 12181 12181 12181 12181 12181 12181 
12181 12181 12181 12181 12181 12181 12181 12181 12181 
12181 12181 12181 12181 12181 12181 12181 12181 12181 
12181 12181 12181 12181 12181 12181 12181 12181 12181 
12181 12181 12181 12181 12181 12181 12181 12181 12181 
12181 12181 12181 12181 12181 12181 12181 12181 12181 
12181 12181 12181 12181 12181 12181 12181 12181 12181 
12181 12181 12181 12181 12181 12181 12181 12181 12181 
12181 12181 12181 12181 12181 12181 12181 12181 12181 
12181 12181 12181 12181 12181 12181 12181 12181 12181 
12181 12181 12181 12181 12181 12181 12181 12181 12181 
12181 12181 12181 12181 12181 12181 12181 12181 12181 
12181 12181 12181 12181 12181 12181 12181 12181 12181 
12181 12181 12181 12181 12181 12181 12181 12181 12181 
12181 12181 12181 12181 12181 12181 12181 12181 12181 
12181 12181 12181 12181 12181 12181 12181 12181 12181 
12181 12181 12181 12181 12181 12181 12181 12181 12181 
12181 12181 12181 12181 12181 12181 12181 12181 12181 
12181 12181 12181 12181 12181 12181 12181 12181 12181 
12181 12181 12181 12181 12181 12181 12181 12181 12181 
12181 12181 12181 12181 12181 12181 12181 12181 12181 
12181 12181 12181 12181 12181 12181 12181 12181 12181 
12181 12181 12181 12181 12181 12181 12181 12181 12181 
12181 12181 12181 12181 12181 12181 12181 12181 12181 
12181 12181 12181 12181 12181 12181 12181 12181 12181 
12181 12181 12181 12181 12181 12181 12181 12181 12181 
12181 12181 12181 12181 12181 12181 12181 12181 12181 
12181 12181 12181 12181 12181 12181 12181 12181 12181 
12181 12181 12181 12181 12181 12181 12181 12181 12181 
12181 12181 12181 12181 12181 12181 12181 12181 12181 
12181 12181 12181 12181 12181 12181 12181 12181 12181 
12181 12181 12180 12180 12180 12180 12180 12180 12180 
12180 12180 12180 12180 12180 12180 12180 12180 12180 
12180 12180 12180 12180 12180 12180 12180 12180 12180 
12180 12180 12180 12180 12180 12180 12180 12180 12180 
12180 12180 12180 12180 12180 12180 12180 12180 12180 
12180 12180 12180 12180 12180 12180 12180 12180 12180 
12180 12180 12180 12180 12180 12180 12180 12180 12180 
12180 12180 12180 12180 12180 12180 12180 12180 12180 
12180 12180 12180 12180 12180 12180 12180 12180 12180 
12180 12180 12180 12180 12180 12180 12180 12180 12180 
12180 12180 12180 12180 12180 12180 12180 12180 12180 
12180 12180 12180 12180 12180 12180 12180 12180 12180 
12180 12180 12180 12180 12180 12180 12180 12180 12180 
12180 12180 12180 12180 12180 12180 12180 12180 12180 
12180 12180 12180 12180 12180 12180 12180 12180 12180 
12180 12180 12180 12180 12180 12180 12180 12180 12180 
12180 12180 12180 12180 12180 12180 12180 12180 12180 
12180 12180 12180 12180 12180 12180 12180 12180 12180 
12180 12180 12180 12180 12180 12180 12180 12180 12180 
12180 12180 12180 12180 12180 12180 12180 12180 12180 
12180 12180 12180 12180 12180 12180 12180 12180 12180 
12180 12180 12180 12180 12180 12180 12180 12180 12180 
12180 12180 12180 12180 12180 12180 12180 12180 12180 
12180 12180 12180 12180 12180 12180 12180 12180 12180 
12180 12180 12180 12180 12180 12180 12180 12180 12180 
12180 12180 12180 12180 12180 12180 12180 12180 12180 
12180 12180 12180 12180 12180 12180 12180 12180 12180 
12180 12180 12180 12180 12180 12180 12180 12180 12180 
12180 12180 12180 12180 12180 12180 12180 12180 12180 
12180 12180 12180 12180 12180 12180 12180 12180 12180 
12180 12180 12180 12180 12180 12180 12180 12180 12180 
12180 12180 12180 12180 12180 12180 12180 12180 12180 
12180 12180 12180 12180 12180 12180 12180 12180 12180 
12180 12180 12180 12180 12180 12180 12180 12180 12180 
12180 12180 12180 12180 12180 12180 12180 12180 12180 
12180 12180 12180 12180 12180 12180 12180 12180 12180 
12180 12180 12180 12180 12180 12180 12180 12180 12180 
12180 12180 12180 12180 12180 12180 12180 12180 12180 
12180 12180 12180 12180 12180 12180 12180 12180 12180 
12180 12180 12180 12180 12180 12180 12180 12180 12180 
12180 12180 12180 12180 12180 12180 12180 12180 12180 
12180 12180 12180 12180 12180 12180 12180 12180 12180 
12180 12180 12180 12180 12180 12180 12180 12180 12180 
12180 12180 12180 12180 12180 12180 12180 12180 12180 
12180 12180 12180 12180 12180 12180 12180 12180 12180 
12180 12180 12180 12180 12180 12180 12180 12180 12180 
12180 12180 12180 12180 12180 12180 12180 12180 12180 
12180 12180 12180 12180 12180 12180 12180 12180 12180 
12180 12180 12180 12180 12180 12180 12180 12180 12180 
12180 12180 12180 12180 12180 12180 12180 12180 12180 
12180 12180 12180 12180 12180 12180 12180 12180 12180 
12180 12180 12180 12180 12180 12180 12180 12180 12180 
12180 12180 12180 12180 12180 12180 12180 12180 12180 
12180 12180 12180 12180 12180 12180 12180 12180 12180 
12180 12180 12180 12180 12180 12180 12180 12180 12180 
12180 12180 12180 12180 12180 12180 12180 12180 12180 
12180 12180 12180 12180 12180 12180 12180 12180 12180 
12180 12180 12180 12180 12180 12180 12180 12180 12180 
12180 12180 12180 12180 12180 12180 12180 12180 12180 
12180 12180 12180 12180 12180 12180 12180 12180 12180 
12180 12180 12180 12180 12180 12180 12180 12180 12180 
12180 12180 12180 12180 12180 12180 12180 12180 12180 
12180 12180 12180 12180 12180 12180 12180 12180 12180 
12180 12180 12180 12180 12180 12180 12180 12180 12180 
12180 12180 12180 12180 12180 12180 12180 12180 12180 
12180 12180 12180 12180 12180 12180 12180 12180 12180 
12180 12180 12180 12180 12180 12180 12180 12180 12180 
12180 12180 12180 12180 12180 12180 12180 12180 12180 
12180 12180 12180 12180 12180 12180 12180 12180 12180 
12180 12180 12180 12180 12180 12180 12180 12180 12180 
12180 12180 12180 12180 12180 12180 12180 12180 12180 
12180 12180 12180 12180 12180 12180 12180 12180 12180 
12180 12180 12180 12180 12180 12180 12180 12180 12180 
12180 12180 12180 12180 12180 12180 12180 12180 12180 
12180 12180 12180 12180 12180 12180 12180 12180 12180 
12180 12180 12180 12180 12180 12180 12180 12180 12180 
12180 12180 12180 12180 12180 12180 12180 12180 12180 
12180 12180 12180 12180 12180 12180 12180 12180 12180 
12180 12180 12180 12180 12180 12180 12180 12180 12180 
12180 12180 12180 12180 12180 12180 12180 12180 12180 
12180 12180 12180 12180 12180 12180 12180 12180 12180 
12180 12180 12180 12180 12180 12180 12180 12180 12180 
12180 12180 12180 12180 12180 12180 12180 12180 12180 
12180 12180 12180 12180 12180 12180 12180 12180 12180 
12180 12180 12180 12180 12180 12180 12180 12180 12180 
12180 12180 12180 12180 12180 12180 12180 12180 12180 
12180 12180 12180 12180 12180 12180 12180 12180 12180 
12180 12180 12180 12180 12180 12180 12180 12180 12180 
12180 12180 12180 12180 12180 12180 12180 12180 12180 
12180 12180 12180 12180 12180 12180 12180 12180 12180 
12180 12180 12180 12180 12180 12180 12180 12180 12180 
12180 12180 12180 12180 12180 12180 12180 12180 12180 
12180 12180 12180 12180 12180 12180 12180 12180 12180 
12180 12180 12180 12180 12180 12180 12180 12180 12180 
12180 12180 12180 12180 12180 12180 12180 12180 12180 
12180 12180 12180 12180 12180 12180 12180 12180 12180 
12180 12180 12180 12180 12180 12180 12180 12180 12180 
12180 12180 12180 12180 12180 12180 12180 12180 12180 
12180 12180 12180 12180 12180 12180 12180 12180 12180 
12180 12180 12180 12180 12180 12180 12180 12180 12180 
12180 12180 12180 12180 12180 12180 12180 12180 12180 
12180 12180 12180 12180 12180 12180 12180 12180 12180 
12180 12180 12180 12180 12180 12180 12180 12180 12180 
12180 12180 12180 12180 12180 12180 12180 12180 12180 
12180 12180 12180 12180 12180 12180 12180 12180 12180 
12180 12180 12180 12180 12180 12180 12180 12180 12180 
12180 12180 12180 12180 12180 12180 12180 12180 12180 
12180 12180 12180 12180 12180 12180 12180 12180 12180 
12180 12180 12180 12180 12180 12180 12180 12180 12180 
12180 12180 12180 12180 12180 12180 12180 12180 12180 
12180 12180 12180 12180 12180 12180 12180 12180 12180 
12180 12180 12180 12180 12180 12180 12180 12180 12180 